LAMMPS data file via write_data, version 2 Aug 2023, timestep = 0, units = metal

200 atoms
2 atom types

-17.83 17.83 xlo xhi
-17.83 17.83 ylo yhi
-0.1 0 zlo zhi

Masses

1 58.7
2 1.0079

Atoms # atomic

1 2 -17.829999999999995 16.047 0 1 0 0
2 2 16.047 14.264 0 0 0 0
3 2 14.264 16.047 0 0 0 0
4 2 12.481 14.264 0 0 0 0
5 2 10.697999999999999 16.047 0 0 0 0
6 2 8.915 14.264 0 0 0 0
7 2 7.132 16.047 0 0 0 0
8 2 5.349 14.264 0 0 0 0
9 2 3.566 16.047 0 0 0 0
10 2 1.783 14.264 0 0 0 0
11 2 0 16.047 0 0 0 0
12 2 -1.783 14.264 0 0 0 0
13 2 -3.5660000000000003 16.047 0 0 0 0
14 2 -5.349 14.264 0 0 0 0
15 2 -7.132 16.047 0 0 0 0
16 2 -8.915000000000001 14.264 0 0 0 0
17 2 -10.698 16.047 0 0 0 0
18 2 -12.481 14.264 0 0 0 0
19 2 -14.264000000000001 16.047 0 0 0 0
20 2 -16.046999999999997 14.264 0 0 0 0
21 2 -17.829999999999995 12.481 0 1 0 0
22 2 16.047 10.698 0 0 0 0
23 2 14.264 12.481 0 0 0 0
24 2 12.481 10.698 0 0 0 0
25 2 10.697999999999999 12.481 0 0 0 0
26 2 8.915 10.698 0 0 0 0
27 2 7.132 12.481 0 0 0 0
28 2 5.349 10.698 0 0 0 0
29 2 3.566 12.481 0 0 0 0
30 2 1.783 10.698 0 0 0 0
31 2 0 12.481 0 0 0 0
32 2 -1.783 10.698 0 0 0 0
33 2 -3.5660000000000003 12.481 0 0 0 0
34 2 -5.349 10.698 0 0 0 0
35 2 -7.132 12.481 0 0 0 0
36 2 -8.915000000000001 10.698 0 0 0 0
37 2 -10.698 12.481 0 0 0 0
38 2 -12.481 10.698 0 0 0 0
39 2 -14.264000000000001 12.481 0 0 0 0
40 2 -16.046999999999997 10.698 0 0 0 0
41 2 -17.829999999999995 8.915 0 1 0 0
42 2 16.047 7.132 0 0 0 0
43 2 14.264 8.915 0 0 0 0
44 2 12.481 7.132 0 0 0 0
45 2 10.697999999999999 8.915 0 0 0 0
46 2 8.915 7.132 0 0 0 0
47 2 7.132 8.915 0 0 0 0
48 2 5.349 7.132 0 0 0 0
49 2 3.566 8.915 0 0 0 0
50 2 1.783 7.132 0 0 0 0
51 2 0 8.915 0 0 0 0
52 2 -1.783 7.132 0 0 0 0
53 2 -3.5660000000000003 8.915 0 0 0 0
54 2 -5.349 7.132 0 0 0 0
55 2 -7.132 8.915 0 0 0 0
56 2 -8.915000000000001 7.132 0 0 0 0
57 2 -10.698 8.915 0 0 0 0
58 2 -12.481 7.132 0 0 0 0
59 2 -14.264000000000001 8.915 0 0 0 0
60 2 -16.046999999999997 7.132 0 0 0 0
61 2 -17.829999999999995 5.349 0 1 0 0
62 2 16.047 3.566 0 0 0 0
63 2 14.264 5.349 0 0 0 0
64 2 12.481 3.566 0 0 0 0
65 2 10.697999999999999 5.349 0 0 0 0
66 2 8.915 3.566 0 0 0 0
67 2 7.132 5.349 0 0 0 0
68 2 5.349 3.566 0 0 0 0
69 2 3.566 5.349 0 0 0 0
70 2 1.783 3.566 0 0 0 0
71 2 0 5.349 0 0 0 0
72 2 -1.783 3.566 0 0 0 0
73 2 -3.5660000000000003 5.349 0 0 0 0
74 2 -5.349 3.566 0 0 0 0
75 2 -7.132 5.349 0 0 0 0
76 2 -8.915000000000001 3.566 0 0 0 0
77 2 -10.698 5.349 0 0 0 0
78 2 -12.481 3.566 0 0 0 0
79 2 -14.264000000000001 5.349 0 0 0 0
80 2 -16.046999999999997 3.566 0 0 0 0
81 2 -17.829999999999995 1.783 0 1 0 0
82 2 16.047 0 0 0 0 0
83 2 14.264 1.783 0 0 0 0
84 2 12.481 0 0 0 0 0
85 2 10.697999999999999 1.783 0 0 0 0
86 2 8.915 0 0 0 0 0
87 2 7.132 1.783 0 0 0 0
88 2 5.349 0 0 0 0 0
89 2 3.566 1.783 0 0 0 0
90 2 1.783 0 0 0 0 0
91 2 0 1.783 0 0 0 0
92 2 -1.783 0 0 0 0 0
93 2 -3.5660000000000003 1.783 0 0 0 0
94 2 -5.349 0 0 0 0 0
95 2 -7.132 1.783 0 0 0 0
96 2 -8.915000000000001 0 0 0 0 0
97 2 -10.698 1.783 0 0 0 0
98 2 -12.481 0 0 0 0 0
99 2 -14.264000000000001 1.783 0 0 0 0
100 2 -16.046999999999997 0 0 0 0 0
101 2 -17.829999999999995 -1.783 0 1 0 0
102 2 16.047 -3.566 0 0 0 0
103 2 14.264 -1.783 0 0 0 0
104 2 12.481 -3.566 0 0 0 0
105 2 10.697999999999999 -1.783 0 0 0 0
106 2 8.915 -3.566 0 0 0 0
107 2 7.132 -1.783 0 0 0 0
108 2 5.349 -3.566 0 0 0 0
109 2 3.566 -1.783 0 0 0 0
110 2 1.783 -3.566 0 0 0 0
111 2 0 -1.783 0 0 0 0
112 2 -1.783 -3.566 0 0 0 0
113 2 -3.5660000000000003 -1.783 0 0 0 0
114 2 -5.349 -3.566 0 0 0 0
115 2 -7.132 -1.783 0 0 0 0
116 2 -8.915000000000001 -3.566 0 0 0 0
117 2 -10.698 -1.783 0 0 0 0
118 2 -12.481 -3.566 0 0 0 0
119 2 -14.264000000000001 -1.783 0 0 0 0
120 2 -16.046999999999997 -3.566 0 0 0 0
121 2 -17.829999999999995 -5.349 0 1 0 0
122 2 16.047 -7.132 0 0 0 0
123 2 14.264 -5.349 0 0 0 0
124 2 12.481 -7.132 0 0 0 0
125 2 10.697999999999999 -5.349 0 0 0 0
126 2 8.915 -7.132 0 0 0 0
127 2 7.132 -5.349 0 0 0 0
128 2 5.349 -7.132 0 0 0 0
129 2 3.566 -5.349 0 0 0 0
130 2 1.783 -7.132 0 0 0 0
131 2 0 -5.349 0 0 0 0
132 2 -1.783 -7.132 0 0 0 0
133 2 -3.5660000000000003 -5.349 0 0 0 0
134 2 -5.349 -7.132 0 0 0 0
135 2 -7.132 -5.349 0 0 0 0
136 2 -8.915000000000001 -7.132 0 0 0 0
137 2 -10.698 -5.349 0 0 0 0
138 2 -12.481 -7.132 0 0 0 0
139 2 -14.264000000000001 -5.349 0 0 0 0
140 2 -16.046999999999997 -7.132 0 0 0 0
141 2 -17.829999999999995 -8.915 0 1 0 0
142 2 16.047 -10.698 0 0 0 0
143 2 14.264 -8.915 0 0 0 0
144 2 12.481 -10.698 0 0 0 0
145 2 10.697999999999999 -8.915 0 0 0 0
146 2 8.915 -10.698 0 0 0 0
147 2 7.132 -8.915 0 0 0 0
148 2 5.349 -10.698 0 0 0 0
149 2 3.566 -8.915 0 0 0 0
150 2 1.783 -10.698 0 0 0 0
151 2 0 -8.915 0 0 0 0
152 2 -1.783 -10.698 0 0 0 0
153 2 -3.5660000000000003 -8.915 0 0 0 0
154 2 -5.349 -10.698 0 0 0 0
155 2 -7.132 -8.915 0 0 0 0
156 2 -8.915000000000001 -10.698 0 0 0 0
157 2 -10.698 -8.915 0 0 0 0
158 2 -12.481 -10.698 0 0 0 0
159 2 -14.264000000000001 -8.915 0 0 0 0
160 2 -16.046999999999997 -10.698 0 0 0 0
161 2 -17.829999999999995 -12.481 0 1 0 0
162 2 16.047 -14.264 0 0 0 0
163 2 14.264 -12.481 0 0 0 0
164 2 12.481 -14.264 0 0 0 0
165 2 10.697999999999999 -12.481 0 0 0 0
166 2 8.915 -14.264 0 0 0 0
167 2 7.132 -12.481 0 0 0 0
168 2 5.349 -14.264 0 0 0 0
169 2 3.566 -12.481 0 0 0 0
170 2 1.783 -14.264 0 0 0 0
171 2 0 -12.481 0 0 0 0
172 2 -1.783 -14.264 0 0 0 0
173 2 -3.5660000000000003 -12.481 0 0 0 0
174 2 -5.349 -14.264 0 0 0 0
175 2 -7.132 -12.481 0 0 0 0
176 2 -8.915000000000001 -14.264 0 0 0 0
177 2 -10.698 -12.481 0 0 0 0
178 2 -12.481 -14.264 0 0 0 0
179 2 -14.264000000000001 -12.481 0 0 0 0
180 2 -16.046999999999997 -14.264 0 0 0 0
181 2 -17.829999999999995 -16.047 0 1 0 0
182 2 16.047 -17.83 0 0 0 0
183 2 14.264 -16.047 0 0 0 0
184 2 12.481 -17.83 0 0 0 0
185 2 10.697999999999999 -16.047 0 0 0 0
186 2 8.915 -17.83 0 0 0 0
187 2 7.132 -16.047 0 0 0 0
188 2 5.349 -17.83 0 0 0 0
189 2 3.566 -16.047 0 0 0 0
190 2 1.783 -17.83 0 0 0 0
191 2 0 -16.047 0 0 0 0
192 2 -1.783 -17.83 0 0 0 0
193 2 -3.5660000000000003 -16.047 0 0 0 0
194 2 -5.349 -17.83 0 0 0 0
195 2 -7.132 -16.047 0 0 0 0
196 2 -8.915000000000001 -17.83 0 0 0 0
197 2 -10.698 -16.047 0 0 0 0
198 2 -12.481 -17.83 0 0 0 0
199 2 -14.264000000000001 -16.047 0 0 0 0
200 2 -16.046999999999997 -17.83 0 0 0 0